created by fftool

8767 atoms
4590 bonds
2295 angles
5 atom types
1 bond types
1 angle types
   -17.153631885    18.003017118 xlo xhi
   -17.855467919    17.553981017 ylo yhi
   -34.618715923    34.618715923 zlo zhi

Masses

   1    1.008  # H
   2    1.008  # Hw
   3   15.999  # Ow
   4   35.453  # Cl
   5   12.011
   
Bond Coeffs

   1   517.630258     1.000000  # Ow-Hw

Angle Coeffs

   1    37.950526   109.470000  # Hw-Ow-Hw

Atoms

      1       1    1   1.000000  8.430114e+00 -1.499999e+01  2.757854e+01  # H H
      2       2    1   1.000000 -2.371264e+00  1.263813e+01  2.104737e+01  # H H
      3       3    1   1.000000  2.943860e-01  2.994792e+00  2.397920e+01  # H H
      4       4    1   1.000000  1.259720e+01  1.051237e+01  2.728777e+01  # H H
      5       5    1   1.000000 -8.203636e+00 -1.009267e+01 -8.997296e+00  # H H
      6       6    1   1.000000 -1.078940e-01  1.180900e+01  2.038458e+01  # H H
      7       7    1   1.000000  3.085583e+00  1.063991e+01 -3.001051e+01  # H H
      8       8    1   1.000000 -8.761273e+00  1.321798e+01  3.896511e+00  # H H
      9       9    1   1.000000  1.376753e+01  4.615749e+00 -2.652924e+01  # H H
     10      10    1   1.000000  1.262431e+01 -1.277395e+01  2.367566e+01  # H H
     11      11    1   1.000000 -4.151883e+00 -7.750022e+00  3.081092e+00  # H H
     12      12    1   1.000000  9.201760e-01  2.432451e+00 -2.700808e+01  # H H
     13      13    1   1.000000 -5.349107e+00  1.040956e+01  3.342060e-01  # H H
     14      14    1   1.000000  1.500227e+01  4.155113e+00  1.782040e-01  # H H
     15      15    1   1.000000  2.931719e+00 -3.291504e+00  2.278333e+01  # H H
     16      16    1   1.000000  1.500938e+01  2.132836e+00  3.000257e+01  # H H
     17      17    1   1.000000 -7.391832e+00  1.386424e+01  1.519443e+00  # H H
     18      18    1   1.000000 -1.014525e+01 -1.058234e+01  9.696435e+00  # H H
     19      19    1   1.000000  1.498465e+01  1.226747e+01  1.977631e+01  # H H
     20      20    1   1.000000 -8.938421e+00 -9.449860e+00 -6.468244e+00  # H H
     21      21    1   1.000000  1.497983e+01  1.052937e+01 -3.063126e+00  # H H
     22      22    1   1.000000  1.457563e+01  8.024310e-01 -1.455121e+01  # H H
     23      23    1   1.000000  1.716453e+00 -3.654071e+00 -7.315770e+00  # H H
     24      24    1   1.000000  1.074891e+01  1.020311e+01 -4.216438e+00  # H H
     25      25    1   1.000000 -7.375791e+00  2.655014e+00  1.339419e+01  # H H
     26      26    1   1.000000 -1.851363e+00 -4.480625e+00  2.340663e+01  # H H
     27      27    1   1.000000 -3.545650e-01  4.050631e+00  9.267365e+00  # H H
     28      28    1   1.000000 -3.770558e+00 -4.699585e+00 -1.262786e+01  # H H
     29      29    1   1.000000 -1.303559e+01 -1.131661e+01  1.344788e+01  # H H
     30      30    1   1.000000 -1.807522e+00  5.120402e+00 -2.106824e+01  # H H
     31      31    1   1.000000 -9.050411e+00  1.373383e+01  2.773934e+01  # H H
     32      32    1   1.000000  9.464100e+00  9.747549e+00  1.905900e+01  # H H
     33      33    1   1.000000  6.560500e-02  1.278990e+01  8.393205e+00  # H H
     34      34    1   1.000000 -1.263648e+01  7.593213e+00 -1.454761e+01  # H H
     35      35    1   1.000000  7.346782e+00 -6.540519e+00  2.329918e+01  # H H
     36      36    1   1.000000 -4.139702e+00 -1.500363e+01 -9.836298e+00  # H H
     37      37    1   1.000000 -1.270663e+01 -1.890858e+00 -2.137490e+01  # H H
     38      38    1   1.000000 -9.895273e+00 -8.916213e+00 -1.561814e+01  # H H
     39      39    1   1.000000  1.235938e+01 -1.054219e+01  1.348239e+01  # H H
     40      40    1   1.000000  3.793832e+00  1.495954e+01 -3.751599e+00  # H H
     41      41    1   1.000000  5.778553e+00 -6.120316e+00 -2.264795e+00  # H H
     42      42    1   1.000000  6.257627e+00 -4.058709e+00 -2.305356e+01  # H H
     43      43    1   1.000000  2.005071e+00 -4.942227e+00 -1.745811e+01  # H H
     44      44    1   1.000000  1.106571e+01  8.542179e+00  2.713821e+01  # H H
     45      45    1   1.000000  9.991092e+00 -1.118878e+01  8.714857e+00  # H H
     46      46    2   0.423800  6.239619e+00  1.416364e+00 -1.072842e+01  # Hw SPCE
     47      46    3  -0.847600  5.458580e+00  2.039918e+00 -1.069437e+01  # Ow SPCE
     48      46    2   0.423800  4.632106e+00  1.554850e+00 -1.098011e+01  # Hw SPCE
     49      47    2   0.423800 -1.115820e+01  5.708675e+00  3.000172e+01  # Hw SPCE
     50      47    3  -0.847600 -1.101902e+01  6.693517e+00  2.989820e+01  # Ow SPCE
     51      47    2   0.423800 -1.004030e+01  6.886220e+00  2.982759e+01  # Hw SPCE
     52      48    2   0.423800  9.166953e+00 -1.468699e+01  8.456038e+00  # Hw SPCE
     53      48    3  -0.847600  9.381754e+00 -1.374694e+01  8.720923e+00  # Ow SPCE
     54      48    2   0.423800  8.535276e+00 -1.321956e+01  8.794092e+00  # Hw SPCE
     55      49    2   0.423800  7.355810e-01 -1.488306e+01 -1.578374e+01  # Hw SPCE
     56      49    3  -0.847600  9.797410e-01 -1.500130e+01 -1.482124e+01  # Ow SPCE
     57      49    2   0.423800  1.975382e+00 -1.500606e+01 -1.472809e+01  # Hw SPCE
     58      50    2   0.423800 -8.256021e+00  4.285352e+00 -2.761054e+01  # Hw SPCE
     59      50    3  -0.847600 -7.868496e+00  5.206024e+00 -2.765732e+01  # Ow SPCE
     60      50    2   0.423800 -8.241109e+00  5.684499e+00 -2.845244e+01  # Hw SPCE
     61      51    2   0.423800 -1.230617e+01  1.445938e+01  9.782971e+00  # Hw SPCE
     62      51    3  -0.847600 -1.284312e+01  1.500042e+01  9.135699e+00  # Ow SPCE
     63      51    2   0.423800 -1.242253e+01  1.495017e+01  8.229842e+00  # Hw SPCE
     64      52    2   0.423800  1.260655e+01  1.404190e+01  4.956290e+00  # Hw SPCE
     65      52    3  -0.847600  1.311562e+01  1.406220e+01  4.095807e+00  # Ow SPCE
     66      52    2   0.423800  1.315076e+01  1.500035e+01  3.751368e+00  # Hw SPCE
     67      53    2   0.423800 -7.441525e+00 -1.115898e+01  1.622078e+01  # Hw SPCE
     68      53    3  -0.847600 -8.307790e+00 -1.066129e+01  1.617737e+01  # Ow SPCE
     69      53    2   0.423800 -8.501227e+00 -1.025056e+01  1.706837e+01  # Hw SPCE
     70      54    2   0.423800 -5.859604e+00 -4.283673e+00 -6.456037e+00  # Hw SPCE
     71      54    3  -0.847600 -5.061530e+00 -4.092657e+00 -5.884556e+00  # Ow SPCE
     72      54    2   0.423800 -4.749580e+00 -4.939538e+00 -5.453882e+00  # Hw SPCE
     73      55    2   0.423800  6.422277e+00  1.108519e+01 -2.732552e+01  # Hw SPCE
     74      55    3  -0.847600  6.139050e+00  1.146688e+01 -2.644570e+01  # Ow SPCE
     75      55    2   0.423800  5.741137e+00  1.237318e+01 -2.658813e+01  # Hw SPCE
     76      56    2   0.423800  1.203593e+01  3.614490e+00  1.453511e+01  # Hw SPCE
     77      56    3  -0.847600  1.192068e+01  2.733398e+00  1.499379e+01  # Ow SPCE
     78      56    2   0.423800  1.096149e+01  2.454945e+00  1.494456e+01  # Hw SPCE
     79      57    2   0.423800 -1.120206e+01  8.290411e+00  1.731634e+01  # Hw SPCE
     80      57    3  -0.847600 -1.162451e+01  8.478075e+00  1.820309e+01  # Ow SPCE
     81      57    2   0.423800 -1.248527e+01  7.974233e+00  1.827553e+01  # Hw SPCE
     82      58    2   0.423800 -1.065564e+01  1.094594e+01  3.000123e+01  # Hw SPCE
     83      58    3  -0.847600 -9.923910e+00  1.032407e+01  2.972221e+01  # Ow SPCE
     84      58    2   0.423800 -1.020833e+01  9.379594e+00  2.988677e+01  # Hw SPCE
     85      59    2   0.423800 -9.084011e+00 -1.284868e+01  9.413140e+00  # Hw SPCE
     86      59    3  -0.847600 -8.187480e+00 -1.274559e+01  9.843958e+00  # Ow SPCE
     87      59    2   0.423800 -7.957908e+00 -1.177437e+01  9.907501e+00  # Hw SPCE
     88      60    2   0.423800 -6.484520e+00  1.319800e+01 -2.538553e+01  # Hw SPCE
     89      60    3  -0.847600 -6.420806e+00  1.256342e+01 -2.461530e+01  # Ow SPCE
     90      60    2   0.423800 -5.925968e+00  1.299990e+01 -2.386389e+01  # Hw SPCE
     91      61    2   0.423800  3.233679e+00 -9.371843e+00  2.751649e+01  # Hw SPCE
     92      61    3  -0.847600  3.510792e+00 -8.411214e+00  2.749648e+01  # Ow SPCE
     93      61    2   0.423800  4.508921e+00 -8.352529e+00  2.747933e+01  # Hw SPCE
     94      62    2   0.423800  6.527320e-01 -2.447622e+00 -1.208281e+01  # Hw SPCE
     95      62    3  -0.847600  1.215553e+00 -1.638560e+00 -1.225208e+01  # Ow SPCE
     96      62    2   0.423800  6.257770e-01 -8.644070e-01 -1.248197e+01  # Hw SPCE
     97      63    2   0.423800  4.130697e+00  4.082712e+00 -1.011545e+01  # Hw SPCE
     98      63    3  -0.847600  3.676308e+00  3.381504e+00 -9.566051e+00  # Ow SPCE
     99      63    2   0.423800  4.206590e+00  3.213656e+00 -8.735010e+00  # Hw SPCE
    100      64    2   0.423800  1.500163e+01  4.642391e+00  1.635846e+01  # Hw SPCE
    101      64    3  -0.847600  1.443707e+01  4.383796e+00  1.714230e+01  # Ow SPCE
    102      64    2   0.423800  1.360518e+01  3.932438e+00  1.681946e+01  # Hw SPCE
    103      65    2   0.423800 -1.408861e+01  1.301486e+01  1.107711e+01  # Hw SPCE
    104      65    3  -0.847600 -1.444647e+01  1.282405e+01  1.199118e+01  # Ow SPCE
    105      65    2   0.423800 -1.371833e+01  1.244390e+01  1.256154e+01  # Hw SPCE
    106      66    2   0.423800  8.266943e+00  1.331447e+01 -8.558764e+00  # Hw SPCE
    107      66    3  -0.847600  8.795823e+00  1.401606e+01 -9.036311e+00  # Ow SPCE
    108      66    2   0.423800  8.246645e+00  1.439981e+01 -9.778698e+00  # Hw SPCE
    109      67    2   0.423800 -5.598223e+00  1.477737e+01  2.213032e+01  # Hw SPCE
    110      67    3  -0.847600 -6.576266e+00  1.498568e+01  2.213636e+01  # Ow SPCE
    111      67    2   0.423800 -6.907776e+00  1.500194e+01  2.307967e+01  # Hw SPCE
    112      68    2   0.423800  3.706159e+00 -1.016671e+01  3.048824e+00  # Hw SPCE
    113      68    3  -0.847600  4.424378e+00 -1.050244e+01  3.658292e+00  # Ow SPCE
    114      68    2   0.423800  4.392995e+00 -9.996997e+00  4.520584e+00  # Hw SPCE
    115      69    2   0.423800 -7.648179e+00  1.337852e+01  1.512933e+01  # Hw SPCE
    116      69    3  -0.847600 -7.628036e+00  1.263348e+01  1.579604e+01  # Ow SPCE
    117      69    2   0.423800 -7.223663e+00  1.296115e+01  1.664992e+01  # Hw SPCE
    118      70    2   0.423800  1.102804e+01 -9.354624e+00 -9.233548e+00  # Hw SPCE
    119      70    3  -0.847600  1.159537e+01 -1.014438e+01 -9.000252e+00  # Ow SPCE
    120      70    2   0.423800  1.254320e+01 -9.849659e+00 -8.878754e+00  # Hw SPCE
    121      71    2   0.423800 -4.008368e+00  1.050268e+01 -1.712747e+01  # Hw SPCE
    122      71    3  -0.847600 -4.557741e+00  1.101164e+01 -1.779015e+01  # Ow SPCE
    123      71    2   0.423800 -4.774717e+00  1.042068e+01 -1.856712e+01  # Hw SPCE
    124      72    2   0.423800 -8.623863e+00  5.173150e-01  3.050335e+00  # Hw SPCE
    125      72    3  -0.847600 -8.987244e+00  9.040320e-01  2.202748e+00  # Ow SPCE
    126      72    2   0.423800 -9.948276e+00  6.459290e-01  2.103755e+00  # Hw SPCE
    127      73    2   0.423800 -6.259155e+00 -6.884201e+00 -1.422478e+01  # Hw SPCE
    128      73    3  -0.847600 -6.332278e+00 -6.674940e+00 -1.519990e+01  # Ow SPCE
    129      73    2   0.423800 -7.183586e+00 -6.179121e+00 -1.537148e+01  # Hw SPCE
    130      74    2   0.423800 -4.210810e+00 -1.472491e+01 -1.837142e+01  # Hw SPCE
    131      74    3  -0.847600 -3.277154e+00 -1.445445e+01 -1.860623e+01  # Ow SPCE
    132      74    2   0.423800 -2.981988e+00 -1.371534e+01 -1.800076e+01  # Hw SPCE
    133      75    2   0.423800  8.171023e+00  9.686377e+00 -1.461303e+01  # Hw SPCE
    134      75    3  -0.847600  8.986709e+00  9.954370e+00 -1.512570e+01  # Ow SPCE
    135      75    2   0.423800  9.670245e+00  9.226682e+00 -1.506870e+01  # Hw SPCE
    136      76    2   0.423800 -6.465234e+00  7.886680e+00  3.000027e+01  # Hw SPCE
    137      76    3  -0.847600 -6.762367e+00  8.841516e+00  3.000013e+01  # Ow SPCE
    138      76    2   0.423800 -7.761640e+00  8.879634e+00  3.000008e+01  # Hw SPCE
    139      77    2   0.423800 -1.497438e+01 -7.562660e+00  2.708121e+00  # Hw SPCE
    140      77    3  -0.847600 -1.500228e+01 -6.583617e+00  2.506388e+00  # Ow SPCE
    141      77    2   0.423800 -1.411641e+01 -6.292329e+00  2.145299e+00  # Hw SPCE
    142      78    2   0.423800 -1.500070e+01 -1.000317e+01  1.751828e+01  # Hw SPCE
    143      78    3  -0.847600 -1.465908e+01 -9.349996e+00  1.684251e+01  # Ow SPCE
    144      78    2   0.423800 -1.498477e+01 -8.432624e+00  1.707133e+01  # Hw SPCE
    145      79    2   0.423800  7.577338e+00  5.546239e+00 -2.145122e+01  # Hw SPCE
    146      79    3  -0.847600  7.392023e+00  6.521414e+00 -2.157242e+01  # Ow SPCE
    147      79    2   0.423800  7.771688e+00  6.826824e+00 -2.244568e+01  # Hw SPCE
    148      80    2   0.423800 -8.733374e+00 -1.433489e+00  2.609397e+01  # Hw SPCE
    149      80    3  -0.847600 -9.504854e+00 -9.456800e-01  2.568548e+01  # Ow SPCE
    150      80    2   0.423800 -9.263377e+00 -6.560700e-01  2.475930e+01  # Hw SPCE
    151      81    2   0.423800 -1.428933e+01  6.827826e+00  3.000350e+01  # Hw SPCE
    152      81    3  -0.847600 -1.500428e+01  6.405634e+00  2.944619e+01  # Ow SPCE
    153      81    2   0.423800 -1.487718e+01  5.413792e+00  2.943644e+01  # Hw SPCE
    154      82    2   0.423800 -1.160562e+01 -9.527431e+00  2.159853e+01  # Hw SPCE
    155      82    3  -0.847600 -1.235578e+01 -8.867767e+00  2.155280e+01  # Ow SPCE
    156      82    2   0.423800 -1.322321e+01 -9.337567e+00  2.171668e+01  # Hw SPCE
    157      83    2   0.423800  4.771136e+00 -3.629499e+00  2.112439e+01  # Hw SPCE
    158      83    3  -0.847600  4.455108e+00 -4.394807e+00  2.056365e+01  # Ow SPCE
    159      83    2   0.423800  3.465152e+00 -4.329623e+00  2.043820e+01  # Hw SPCE
    160      84    2   0.423800 -9.745330e-01 -4.994614e+00 -1.716041e+01  # Hw SPCE
    161      84    3  -0.847600 -1.208700e+00 -4.981309e+00 -1.813252e+01  # Ow SPCE
    162      84    2   0.423800 -5.797120e-01 -4.374604e+00 -1.861861e+01  # Hw SPCE
    163      85    2   0.423800 -3.782515e+00  7.051015e+00  2.029892e+01  # Hw SPCE
    164      85    3  -0.847600 -4.200962e+00  6.265115e+00  2.075418e+01  # Ow SPCE
    165      85    2   0.423800 -4.538343e+00  5.622266e+00  2.006649e+01  # Hw SPCE
    166      86    2   0.423800 -6.354790e+00 -1.300284e+01  2.154164e+01  # Hw SPCE
    167      86    3  -0.847600 -7.205089e+00 -1.250816e+01  2.136195e+01  # Ow SPCE
    168      86    2   0.423800 -7.002692e+00 -1.154003e+01  2.121449e+01  # Hw SPCE
    169      87    2   0.423800 -5.492847e+00 -9.133631e+00  2.164543e+01  # Hw SPCE
    170      87    3  -0.847600 -5.076371e+00 -1.003739e+01  2.174430e+01  # Ow SPCE
    171      87    2   0.423800 -4.416416e+00 -1.018271e+01  2.100718e+01  # Hw SPCE
    172      88    2   0.423800 -2.290246e+00  1.499605e+01  1.610297e+01  # Hw SPCE
    173      88    3  -0.847600 -2.246959e+00  1.496893e+01  1.510428e+01  # Ow SPCE
    174      88    2   0.423800 -3.173264e+00  1.500633e+01  1.472936e+01  # Hw SPCE
    175      89    2   0.423800  5.233733e+00  9.172225e+00  1.546971e+01  # Hw SPCE
    176      89    3  -0.847600  4.598302e+00  9.828926e+00  1.506354e+01  # Ow SPCE
    177      89    2   0.423800  3.997135e+00  1.019434e+01  1.577423e+01  # Hw SPCE
    178      90    2   0.423800 -1.283681e+01 -5.931789e+00 -1.152846e+00  # Hw SPCE
    179      90    3  -0.847600 -1.217901e+01 -5.695995e+00 -4.375130e-01  # Ow SPCE
    180      90    2   0.423800 -1.235347e+01 -6.254948e+00  3.731240e-01  # Hw SPCE
    181      91    2   0.423800  1.124400e+01  1.500051e+01  1.773044e+01  # Hw SPCE
    182      91    3  -0.847600  1.028269e+01  1.480486e+01  1.792439e+01  # Ow SPCE
    183      91    2   0.423800  1.020681e+01  1.435745e+01  1.881549e+01  # Hw SPCE
    184      92    2   0.423800 -6.793118e+00  3.340129e+00  6.675709e+00  # Hw SPCE
    185      92    3  -0.847600 -7.554703e+00  3.533672e+00  7.294200e+00  # Ow SPCE
    186      92    2   0.423800 -7.824757e+00  4.491967e+00  7.200702e+00  # Hw SPCE
    187      93    2   0.423800  1.500822e+01  9.894712e+00 -2.536267e+01  # Hw SPCE
    188      93    3  -0.847600  1.451731e+01  1.013196e+01 -2.620096e+01  # Ow SPCE
    189      93    2   0.423800  1.500493e+01  9.758133e+00 -2.698993e+01  # Hw SPCE
    190      94    2   0.423800 -4.526546e+00  1.404379e+01 -1.223189e+01  # Hw SPCE
    191      94    3  -0.847600 -4.204920e+00  1.498791e+01 -1.215984e+01  # Ow SPCE
    192      94    2   0.423800 -3.301884e+00  1.500056e+01 -1.173046e+01  # Hw SPCE
    193      95    2   0.423800 -1.063637e+00  6.291382e+00 -7.218821e+00  # Hw SPCE
    194      95    3  -0.847600 -2.031758e+00  6.136822e+00 -7.021710e+00  # Ow SPCE
    195      95    2   0.423800 -2.234903e+00  5.160357e+00 -7.094149e+00  # Hw SPCE
    196      96    2   0.423800  6.691254e+00 -3.221436e+00 -2.073821e+01  # Hw SPCE
    197      96    3  -0.847600  7.232607e+00 -4.028283e+00 -2.050171e+01  # Ow SPCE
    198      96    2   0.423800  8.200319e+00 -3.841818e+00 -2.067131e+01  # Hw SPCE
    199      97    2   0.423800 -3.443713e+00 -1.294517e+01  3.810736e+00  # Hw SPCE
    200      97    3  -0.847600 -4.147788e+00 -1.257553e+01  3.204395e+00  # Ow SPCE
    201      97    2   0.423800 -3.736591e+00 -1.190695e+01  2.584782e+00  # Hw SPCE
    202      98    2   0.423800  1.500041e+01  4.559000e-02 -9.074429e+00  # Hw SPCE
    203      98    3  -0.847600  1.451967e+01 -1.146190e-01 -9.936535e+00  # Ow SPCE
    204      98    2   0.423800  1.372068e+01 -6.925080e-01 -9.770228e+00  # Hw SPCE
    205      99    2   0.423800  9.001692e+00 -1.500176e+01 -3.426557e+00  # Hw SPCE
    206      99    3  -0.847600  8.185808e+00 -1.442441e+01 -3.458265e+00  # Ow SPCE
    207      99    2   0.423800  7.373444e+00 -1.500017e+01 -3.550783e+00  # Hw SPCE
    208     100    2   0.423800  9.807570e+00 -1.286832e+01 -3.000293e+01  # Hw SPCE
    209     100    3  -0.847600  9.006865e+00 -1.254277e+01 -2.950005e+01  # Ow SPCE
    210     100    2   0.423800  8.177224e+00 -1.277572e+01 -3.000742e+01  # Hw SPCE
    211     101    2   0.423800 -1.245675e+01 -6.985430e-01  3.390000e-03  # Hw SPCE
    212     101    3  -0.847600 -1.229880e+01 -1.408759e+00 -6.826450e-01  # Ow SPCE
    213     101    2   0.423800 -1.245570e+01 -2.307811e+00 -2.738830e-01  # Hw SPCE
    214     102    2   0.423800 -4.297943e+00  1.016087e+01 -2.473709e+01  # Hw SPCE
    215     102    3  -0.847600 -4.129876e+00  9.228879e+00 -2.441591e+01  # Ow SPCE
    216     102    2   0.423800 -3.185848e+00  9.152029e+00 -2.409513e+01  # Hw SPCE
    217     103    2   0.423800  8.693612e+00  7.634770e+00 -1.113119e+01  # Hw SPCE
    218     103    3  -0.847600  8.373728e+00  8.469574e+00 -1.157928e+01  # Ow SPCE
    219     103    2   0.423800  8.194924e+00  8.281924e+00 -1.254510e+01  # Hw SPCE
    220     104    2   0.423800 -1.236452e+01  1.500035e+01 -2.439526e+01  # Hw SPCE
    221     104    3  -0.847600 -1.139255e+01  1.486983e+01 -2.419973e+01  # Ow SPCE
    222     104    2   0.423800 -1.122875e+01  1.500067e+01 -2.322195e+01  # Hw SPCE
    223     105    2   0.423800  1.178211e+01  3.689002e+00  2.785750e+01  # Hw SPCE
    224     105    3  -0.847600  1.182087e+01  2.747874e+00  2.752167e+01  # Ow SPCE
    225     105    2   0.423800  1.090297e+01  2.351276e+00  2.753465e+01  # Hw SPCE
    226     106    2   0.423800 -4.597728e+00  5.717693e+00  3.591847e+00  # Hw SPCE
    227     106    3  -0.847600 -3.600004e+00  5.715303e+00  3.524445e+00  # Ow SPCE
    228     106    2   0.423800 -3.216045e+00  5.186862e+00  4.281628e+00  # Hw SPCE
    229     107    2   0.423800 -3.109472e+00  1.492844e+01  2.231127e+01  # Hw SPCE
    230     107    3  -0.847600 -2.838506e+00  1.420109e+01  2.294177e+01  # Ow SPCE
    231     107    2   0.423800 -3.624630e+00  1.361193e+01  2.312860e+01  # Hw SPCE
    232     108    2   0.423800 -1.846529e+00  4.235597e+00  2.362339e+01  # Hw SPCE
    233     108    3  -0.847600 -2.178552e+00  3.361275e+00  2.397740e+01  # Ow SPCE
    234     108    2   0.423800 -2.080133e+00  2.657717e+00  2.327360e+01  # Hw SPCE
    235     109    2   0.423800  6.265573e+00 -6.804041e+00 -1.479726e+01  # Hw SPCE
    236     109    3  -0.847600  5.929925e+00 -7.698025e+00 -1.450039e+01  # Ow SPCE
    237     109    2   0.423800  6.626953e+00 -8.146871e+00 -1.394121e+01  # Hw SPCE
    238     110    2   0.423800  5.047090e+00 -4.972745e+00 -1.361044e+01  # Hw SPCE
    239     110    3  -0.847600  4.107284e+00 -5.314372e+00 -1.360304e+01  # Ow SPCE
    240     110    2   0.423800  4.114732e+00 -6.308111e+00 -1.349156e+01  # Hw SPCE
    241     111    2   0.423800 -4.845266e+00  2.646219e+00 -4.956257e+00  # Hw SPCE
    242     111    3  -0.847600 -5.499055e+00  3.126907e+00 -5.540637e+00  # Ow SPCE
    243     111    2   0.423800 -6.412065e+00  2.741677e+00 -5.406431e+00  # Hw SPCE
    244     112    2   0.423800 -5.359023e+00  5.349069e+00 -7.440099e+00  # Hw SPCE
    245     112    3  -0.847600 -4.703325e+00  5.192597e+00 -6.701468e+00  # Ow SPCE
    246     112    2   0.423800 -4.427174e+00  6.070132e+00 -6.309457e+00  # Hw SPCE
    247     113    2   0.423800  5.740144e+00 -5.069288e+00  2.999917e+01  # Hw SPCE
    248     113    3  -0.847600  4.788724e+00 -5.144022e+00  2.970048e+01  # Ow SPCE
    249     113    2   0.423800  4.413210e+00 -6.021061e+00  3.000013e+01  # Hw SPCE
    250     114    2   0.423800  1.498396e+01 -1.004288e+01  9.803823e+00  # Hw SPCE
    251     114    3  -0.847600  1.442305e+01 -1.012058e+01  8.979599e+00  # Ow SPCE
    252     114    2   0.423800  1.500000e+01 -1.038776e+01  8.207757e+00  # Hw SPCE
    253     115    2   0.423800  1.014244e+01 -8.820466e+00  3.000265e+01  # Hw SPCE
    254     115    3  -0.847600  9.527312e+00 -8.074636e+00  2.974700e+01  # Ow SPCE
    255     115    2   0.423800  9.866815e+00 -7.632265e+00  2.891691e+01  # Hw SPCE
    256     116    2   0.423800 -6.433822e+00  1.500403e+01  1.366897e+01  # Hw SPCE
    257     116    3  -0.847600 -5.638942e+00  1.470566e+01  1.419731e+01  # Ow SPCE
    258     116    2   0.423800 -5.740482e+00  1.500049e+01  1.514745e+01  # Hw SPCE
    259     117    2   0.423800  8.398857e+00  1.437032e+01 -3.025505e+00  # Hw SPCE
    260     117    3  -0.847600  7.515050e+00  1.480402e+01 -2.850048e+00  # Ow SPCE
    261     117    2   0.423800  7.062940e+00  1.500299e+01 -3.719536e+00  # Hw SPCE
    262     118    2   0.423800 -2.182060e-01 -7.714421e+00 -2.259018e+01  # Hw SPCE
    263     118    3  -0.847600  6.689170e-01 -7.292523e+00 -2.240305e+01  # Ow SPCE
    264     118    2   0.423800  1.255040e+00 -7.946855e+00 -2.192524e+01  # Hw SPCE
    265     119    2   0.423800 -3.909186e+00  5.533861e+00 -1.786308e+01  # Hw SPCE
    266     119    3  -0.847600 -3.750470e+00  5.096738e+00 -1.874837e+01  # Ow SPCE
    267     119    2   0.423800 -3.579913e+00  5.798011e+00 -1.944055e+01  # Hw SPCE
    268     120    2   0.423800 -1.168529e+01 -9.099720e+00  3.788695e+00  # Hw SPCE
    269     120    3  -0.847600 -1.267102e+01 -9.068115e+00  3.954056e+00  # Ow SPCE
    270     120    2   0.423800 -1.295798e+01 -8.118172e+00  4.077600e+00  # Hw SPCE
    271     121    2   0.423800  1.119499e+01 -9.957200e-02 -9.291281e+00  # Hw SPCE
    272     121    3  -0.847600  1.091910e+01  7.336690e-01 -8.812123e+00  # Ow SPCE
    273     121    2   0.423800  1.007761e+01  1.089068e+00 -9.219046e+00  # Hw SPCE
    274     122    2   0.423800 -1.217745e+01 -8.436577e+00 -2.159158e+01  # Hw SPCE
    275     122    3  -0.847600 -1.121909e+01 -8.160871e+00 -2.151716e+01  # Ow SPCE
    276     122    2   0.423800 -1.065862e+01 -8.959413e+00 -2.129762e+01  # Hw SPCE
    277     123    2   0.423800  7.552617e+00  2.334524e+00  2.919255e+01  # Hw SPCE
    278     123    3  -0.847600  6.984164e+00  1.617336e+00  2.959567e+01  # Ow SPCE
    279     123    2   0.423800  6.167266e+00  2.027820e+00  3.000086e+01  # Hw SPCE
    280     124    2   0.423800 -1.024744e+01 -1.210945e+00 -1.655421e+01  # Hw SPCE
    281     124    3  -0.847600 -1.084522e+01 -1.869310e+00 -1.609682e+01  # Ow SPCE
    282     124    2   0.423800 -1.127030e+01 -2.463817e+00 -1.677937e+01  # Hw SPCE
    283     125    2   0.423800  5.634168e+00 -1.026189e+01  2.632270e+01  # Hw SPCE
    284     125    3  -0.847600  6.131003e+00 -1.054243e+01  2.714395e+01  # Ow SPCE
    285     125    2   0.423800  5.494424e+00 -1.060862e+01  2.791231e+01  # Hw SPCE
    286     126    2   0.423800  1.739644e+00 -1.597709e+00  3.261684e+00  # Hw SPCE
    287     126    3  -0.847600  1.282201e+00 -2.465967e+00  3.453711e+00  # Ow SPCE
    288     126    2   0.423800  9.151830e-01 -2.450788e+00  4.383801e+00  # Hw SPCE
    289     127    2   0.423800  4.678990e-01  9.452008e+00 -2.019277e+01  # Hw SPCE
    290     127    3  -0.847600  1.173623e+00  9.513979e+00 -1.948700e+01  # Ow SPCE
    291     127    2   0.423800  7.690980e-01  9.860486e+00 -1.864066e+01  # Hw SPCE
    292     128    2   0.423800  1.786893e+00 -1.501176e+01 -2.907503e+01  # Hw SPCE
    293     128    3  -0.847600  2.149272e+00 -1.457418e+01 -2.825211e+01  # Ow SPCE
    294     128    2   0.423800  3.018166e+00 -1.500159e+01 -2.800242e+01  # Hw SPCE
    295     129    2   0.423800 -7.047320e+00 -1.496884e+01  2.689960e-01  # Hw SPCE
    296     129    3  -0.847600 -7.996169e+00 -1.488154e+01 -3.442500e-02  # Ow SPCE
    297     129    2   0.423800 -8.608360e+00 -1.500027e+01  7.473210e-01  # Hw SPCE
    298     130    2   0.423800 -5.537908e+00 -9.253500e+00 -1.388444e+01  # Hw SPCE
    299     130    3  -0.847600 -5.152391e+00 -1.009277e+01 -1.350103e+01  # Ow SPCE
    300     130    2   0.423800 -5.889702e+00 -1.073967e+01 -1.330636e+01  # Hw SPCE
    301     131    2   0.423800  1.500056e+01  6.911108e+00  9.331979e+00  # Hw SPCE
    302     131    3  -0.847600  1.443250e+01  6.117885e+00  9.551318e+00  # Ow SPCE
    303     131    2   0.423800  1.495181e+01  5.484397e+00  1.012491e+01  # Hw SPCE
    304     132    2   0.423800 -1.382226e+00 -7.000954e+00  1.294411e+00  # Hw SPCE
    305     132    3  -0.847600 -2.151869e+00 -7.340983e+00  7.540110e-01  # Ow SPCE
    306     132    2   0.423800 -2.257579e+00 -6.778604e+00 -6.608300e-02  # Hw SPCE
    307     133    2   0.423800 -1.476340e+01 -1.254950e-01 -1.565807e+01  # Hw SPCE
    308     133    3  -0.847600 -1.500363e+01  2.681990e-01 -1.477078e+01  # Ow SPCE
    309     133    2   0.423800 -1.498412e+01 -4.472590e-01 -1.407240e+01  # Hw SPCE
    310     134    2   0.423800 -6.493362e+00  1.209549e+01  4.317358e+00  # Hw SPCE
    311     134    3  -0.847600 -6.637534e+00  1.118975e+01  3.918805e+00  # Ow SPCE
    312     134    2   0.423800 -7.089093e+00  1.128404e+01  3.031560e+00  # Hw SPCE
    313     135    2   0.423800  4.009007e+00 -4.491230e-01 -1.947284e+00  # Hw SPCE
    314     135    3  -0.847600  3.503509e+00 -1.272994e+00 -2.203623e+00  # Ow SPCE
    315     135    2   0.423800  4.143189e+00 -1.967718e+00 -2.532511e+00  # Hw SPCE
    316     136    2   0.423800 -5.054306e+00 -7.467291e+00 -2.169140e-01  # Hw SPCE
    317     136    3  -0.847600 -4.687656e+00 -6.887573e+00  5.107500e-01  # Ow SPCE
    318     136    2   0.423800 -5.389013e+00 -6.238305e+00  8.049420e-01  # Hw SPCE
    319     137    2   0.423800 -4.663938e+00  3.070894e+00  1.314445e+01  # Hw SPCE
    320     137    3  -0.847600 -4.917432e+00  3.191886e+00  1.410419e+01  # Ow SPCE
    321     137    2   0.423800 -5.364146e+00  4.078814e+00  1.422168e+01  # Hw SPCE
    322     138    2   0.423800  1.471344e+01 -8.545358e+00  2.292107e+01  # Hw SPCE
    323     138    3  -0.847600  1.416091e+01 -7.712120e+00  2.294160e+01  # Ow SPCE
    324     138    2   0.423800  1.350176e+01 -7.767667e+00  2.369155e+01  # Hw SPCE
    325     139    2   0.423800  1.428633e+01 -1.135892e+01 -1.630081e+01  # Hw SPCE
    326     139    3  -0.847600  1.500244e+01 -1.163205e+01 -1.694315e+01  # Ow SPCE
    327     139    2   0.423800  1.492124e+01 -1.260974e+01 -1.713684e+01  # Hw SPCE
    328     140    2   0.423800 -6.733992e+00 -7.929805e+00  1.554364e+01  # Hw SPCE
    329     140    3  -0.847600 -6.650770e+00 -8.794395e+00  1.603918e+01  # Ow SPCE
    330     140    2   0.423800 -5.695487e+00 -8.940673e+00  1.629616e+01  # Hw SPCE
    331     141    2   0.423800  3.030423e+00  6.661521e+00 -1.646041e+01  # Hw SPCE
    332     141    3  -0.847600  2.800166e+00  6.280767e+00 -1.735596e+01  # Ow SPCE
    333     141    2   0.423800  2.360270e+00  5.390684e+00 -1.723661e+01  # Hw SPCE
    334     142    2   0.423800 -2.795911e+00  1.047233e+01  2.249638e+01  # Hw SPCE
    335     142    3  -0.847600 -3.129914e+00  9.530157e+00  2.246908e+01  # Ow SPCE
    336     142    2   0.423800 -3.472713e+00  9.271744e+00  2.337225e+01  # Hw SPCE
    337     143    2   0.423800 -7.802015e+00  6.309432e+00  2.331701e+01  # Hw SPCE
    338     143    3  -0.847600 -8.017623e+00  6.902999e+00  2.254165e+01  # Ow SPCE
    339     143    2   0.423800 -8.512416e+00  7.709044e+00  2.286641e+01  # Hw SPCE
    340     144    2   0.423800  3.587468e+00 -7.136176e+00 -3.000004e+01  # Hw SPCE
    341     144    3  -0.847600  2.776776e+00 -7.099369e+00 -2.941572e+01  # Ow SPCE
    342     144    2   0.423800  1.959516e+00 -7.260421e+00 -2.996903e+01  # Hw SPCE
    343     145    2   0.423800  5.905331e+00 -1.500050e+01  1.578506e+01  # Hw SPCE
    344     145    3  -0.847600  6.549287e+00 -1.446334e+01  1.632984e+01  # Ow SPCE
    345     145    2   0.423800  7.374185e+00 -1.500286e+01  1.649856e+01  # Hw SPCE
    346     146    2   0.423800  1.497901e+01  1.210331e+01  1.598340e-01  # Hw SPCE
    347     146    3  -0.847600  1.492973e+01  1.163975e+01 -7.248600e-01  # Ow SPCE
    348     146    2   0.423800  1.406315e+01  1.114558e+01 -7.944140e-01  # Hw SPCE
    349     147    2   0.423800 -5.549868e+00 -6.522872e+00 -1.798522e+01  # Hw SPCE