created by fftool

8632 atoms
4500 bonds
2250 angles
5 atom types
1 bond types
1 angle types
-16.482509001    17.891962362 xlo xhi
   -17.606936747    18.617003835 ylo yhi
   -35.702984396    35.702984396 zlo zhi

Masses

   1    1.008  # H
   2    1.008  # Hw
   3   15.999  # Ow
   4   35.453  # Cl
   5   12.011
   
Bond Coeffs

   1   517.630258     1.000000  # Ow-Hw

Angle Coeffs

   1    37.950526   109.470000  # Hw-Ow-Hw

Atoms

      1       1    1   1.000000  2.347440e+00  1.032030e+01  2.275332e+01  # H H
      2       2    1   1.000000 -4.723811e+00  9.532510e-01 -2.446550e+01  # H H
      3       3    1   1.000000 -1.394159e+00 -5.309400e-01 -5.629666e+00  # H H
      4       4    1   1.000000 -5.700039e+00  3.059015e+00  1.402815e+01  # H H
      5       5    1   1.000000 -1.500369e+01 -1.294659e+01 -2.558216e+01  # H H
      6       6    1   1.000000 -7.486195e+00 -6.205923e+00  2.508163e+01  # H H
      7       7    1   1.000000  6.850105e+00 -1.359784e+01  7.026704e+00  # H H
      8       8    1   1.000000 -1.157693e+01  6.754719e+00 -1.599080e+01  # H H
      9       9    1   1.000000 -7.387220e-01  1.059368e+01 -1.774758e+01  # H H
     10      10    1   1.000000  1.061003e+01  8.083358e+00 -2.103003e+01  # H H
     11      11    1   1.000000  2.504551e+00 -1.347861e+01 -1.707829e+01  # H H
     12      12    1   1.000000  1.000686e+01 -5.265034e+00  7.157420e-01  # H H
     13      13    1   1.000000  3.879289e+00  1.045760e+01 -8.691069e+00  # H H
     14      14    1   1.000000 -1.480388e+01  2.009362e+00  1.992562e+01  # H H
     15      15    1   1.000000 -5.442186e+00  8.158128e+00 -1.184156e+01  # H H
     16      16    1   1.000000 -2.229397e+00  1.471396e+01  4.368667e+00  # H H
     17      17    1   1.000000 -1.449599e+00 -3.084104e+00  2.040969e+01  # H H
     18      18    1   1.000000  1.285229e+01 -9.793835e+00  1.669975e+01  # H H
     19      19    1   1.000000 -4.160596e+00 -4.542721e+00 -2.295616e+01  # H H
     20      20    1   1.000000  1.157347e+00  6.183958e+00  2.411100e+01  # H H
     21      21    1   1.000000 -7.232943e+00 -1.476665e+01 -4.030527e+00  # H H
     22      22    1   1.000000 -8.834688e+00 -6.463380e+00  6.541471e+00  # H H
     23      23    1   1.000000 -5.823458e+00  1.906013e+00  1.624292e+01  # H H
     24      24    1   1.000000  7.826813e+00  9.729680e-01  5.554872e+00  # H H
     25      25    1   1.000000 -1.073940e+01 -1.500435e+01 -2.091989e+01  # H H
     26      26    1   1.000000 -8.629568e+00 -4.486038e+00  3.639368e+00  # H H
     27      27    1   1.000000 -1.032779e+01 -1.273670e+01  6.862434e+00  # H H
     28      28    1   1.000000 -1.119124e+00 -1.121115e+01  1.169442e+01  # H H
     29      29    1   1.000000  5.787476e+00  4.879981e+00 -2.118466e+01  # H H
     30      30    1   1.000000  1.014651e+01  1.052050e+01  1.099606e+01  # H H
     31      31    1   1.000000  9.069110e+00 -1.292572e+01  2.528114e+01  # H H
     32      32    1   1.000000  9.980770e-01 -5.429230e-01 -6.355345e+00  # H H
     33      33    1   1.000000 -1.110189e+01 -6.015133e+00  7.493905e+00  # H H
     34      34    1   1.000000 -3.623613e+00  1.104828e+01 -1.849311e+01  # H H
     35      35    1   1.000000 -1.069927e+01  7.193855e+00  9.142194e+00  # H H
     36      36    1   1.000000 -9.039084e+00  6.814224e+00  2.590925e+01  # H H
     37      37    1   1.000000 -5.020300e-01 -9.869707e+00 -1.693907e+01  # H H
     38      38    1   1.000000  9.267155e+00  1.358148e+00 -1.834336e+01  # H H
     39      39    1   1.000000 -1.187904e+00 -1.327168e+01 -1.434987e+00  # H H
     40      40    1   1.000000 -8.617527e+00 -1.494727e+00  1.748873e+00  # H H
     41      41    1   1.000000  1.991774e+00  9.353010e-01  1.707428e+01  # H H
     42      42    1   1.000000  7.400200e-01 -8.802400e-01 -1.204694e+01  # H H
     43      43    1   1.000000  1.451972e+00  3.730445e+00 -5.506187e+00  # H H
     44      44    1   1.000000 -4.587335e+00 -1.248831e+01  4.590681e+00  # H H
     45      45    1   1.000000  1.164018e+01 -6.019852e+00  1.101476e+01  # H H
     46      46    2   0.423800  1.293513e+01 -1.503144e+01 -2.827602e+01  # Hw SPCE
     47      46    3  -0.847600  1.240184e+01 -1.445811e+01 -2.765403e+01  # Ow SPCE
     48      46    2   0.423800  1.278016e+01 -1.452636e+01 -2.673087e+01  # Hw SPCE
     49      47    2   0.423800 -1.500013e+01  4.515286e+00 -4.054198e+00  # Hw SPCE
     50      47    3  -0.847600 -1.498462e+01  3.668561e+00 -4.586001e+00  # Ow SPCE
     51      47    2   0.423800 -1.446098e+01  2.974347e+00 -4.092171e+00  # Hw SPCE
     52      48    2   0.423800  1.767768e+00  5.553031e+00 -1.366643e+01  # Hw SPCE
     53      48    3  -0.847600  1.942719e+00  5.744813e+00 -1.270071e+01  # Ow SPCE
     54      48    2   0.423800  2.628713e+00  5.105708e+00 -1.235292e+01  # Hw SPCE
     55      49    2   0.423800  5.069969e+00 -4.939715e+00 -2.623062e+01  # Hw SPCE
     56      49    3  -0.847600  4.194539e+00 -5.331035e+00 -2.651432e+01  # Ow SPCE
     57      49    2   0.423800  3.462084e+00 -4.956309e+00 -2.594591e+01  # Hw SPCE
     58      50    2   0.423800  8.321463e+00  5.976150e-01  8.058187e+00  # Hw SPCE
     59      50    3  -0.847600  7.892402e+00  1.158485e+00  8.766235e+00  # Ow SPCE
     60      50    2   0.423800  7.392769e+00  5.691230e-01  9.401073e+00  # Hw SPCE
     61      51    2   0.423800 -5.960596e+00 -1.213397e+01 -2.593230e+01  # Hw SPCE
     62      51    3  -0.847600 -6.038992e+00 -1.155559e+01 -2.674429e+01  # Ow SPCE
     63      51    2   0.423800 -5.376053e+00 -1.080911e+01 -2.668707e+01  # Hw SPCE
     64      52    2   0.423800 -1.364614e+01  8.752528e+00 -1.898868e+01  # Hw SPCE
     65      52    3  -0.847600 -1.463594e+01  8.809034e+00 -1.911948e+01  # Ow SPCE
     66      52    2   0.423800 -1.490599e+01  9.767605e+00 -1.921011e+01  # Hw SPCE
     67      53    2   0.423800  1.497330e+01  1.379895e+01  4.977202e+00  # Hw SPCE
     68      53    3  -0.847600  1.485359e+01  1.477730e+01  4.808359e+00  # Ow SPCE
     69      53    2   0.423800  1.499902e+01  1.496825e+01  3.837592e+00  # Hw SPCE
     70      54    2   0.423800 -2.819150e-01  4.537502e+00 -1.467474e+01  # Hw SPCE
     71      54    3  -0.847600 -8.904000e-01  5.303028e+00 -1.488383e+01  # Ow SPCE
     72      54    2   0.423800 -5.191160e-01  6.142133e+00 -1.448627e+01  # Hw SPCE
     73      55    2   0.423800 -8.805138e+00 -1.075699e+01  6.036627e+00  # Hw SPCE
     74      55    3  -0.847600 -9.401870e+00 -1.028389e+01  5.388488e+00  # Ow SPCE
     75      55    2   0.423800 -1.029925e+01 -1.072503e+01  5.378425e+00  # Hw SPCE
     76      56    2   0.423800  1.500226e+01  1.033066e+01 -1.942779e+01  # Hw SPCE
     77      56    3  -0.847600  1.446165e+01  1.116813e+01 -1.934782e+01  # Ow SPCE
     78      56    2   0.423800  1.500091e+01  1.194523e+01 -1.967232e+01  # Hw SPCE
     79      57    2   0.423800  4.152814e+00 -4.651931e+00 -2.921238e+01  # Hw SPCE
     80      57    3  -0.847600  3.588975e+00 -4.401995e+00 -2.999954e+01  # Ow SPCE
     81      57    2   0.423800  2.755229e+00 -4.954140e+00 -3.000108e+01  # Hw SPCE
     82      58    2   0.423800 -2.743348e+00 -1.032321e+01  2.995977e+01  # Hw SPCE
     83      58    3  -0.847600 -3.705512e+00 -1.005113e+01  2.997431e+01  # Ow SPCE
     84      58    2   0.423800 -3.769433e+00 -9.053522e+00  3.000046e+01  # Hw SPCE
     85      59    2   0.423800  7.147734e+00 -2.340690e-01  8.948060e-01  # Hw SPCE
     86      59    3  -0.847600  7.571258e+00  3.367340e-01  1.598234e+00  # Ow SPCE
     87      59    2   0.423800  8.412241e+00  7.405120e-01  1.238081e+00  # Hw SPCE
     88      60    2   0.423800  5.198304e+00 -1.459550e-01 -1.688416e+01  # Hw SPCE
     89      60    3  -0.847600  4.527173e+00  5.910770e-01 -1.680437e+01  # Ow SPCE
     90      60    2   0.423800  4.983292e+00  1.425021e+00 -1.649374e+01  # Hw SPCE
     91      61    2   0.423800  1.103015e+01 -1.119483e+01 -6.151658e+00  # Hw SPCE
     92      61    3  -0.847600  1.052255e+01 -1.205630e+01 -6.137061e+00  # Ow SPCE
     93      61    2   0.423800  9.541192e+00 -1.186471e+01 -6.121799e+00  # Hw SPCE
     94      62    2   0.423800  1.800171e+00  1.500021e+01 -2.554190e+01  # Hw SPCE
     95      62    3  -0.847600  1.213968e+00  1.442384e+01 -2.611125e+01  # Ow SPCE
     96      62    2   0.423800  6.038990e-01  1.500161e+01 -2.665346e+01  # Hw SPCE
     97      63    2   0.423800 -1.489527e+01  5.461023e+00 -1.636480e+01  # Hw SPCE
     98      63    3  -0.847600 -1.439770e+01  5.687122e+00 -1.552736e+01  # Ow SPCE
     99      63    2   0.423800 -1.497890e+01  5.503802e+00 -1.473452e+01  # Hw SPCE
    100      64    2   0.423800  2.945047e+00  8.325971e+00  1.104609e+01  # Hw SPCE
    101      64    3  -0.847600  3.588323e+00  9.074442e+00  1.088489e+01  # Ow SPCE
    102      64    2   0.423800  4.393916e+00  8.952261e+00  1.146462e+01  # Hw SPCE
    103      65    2   0.423800 -9.135646e+00  1.502282e+00 -2.475639e+01  # Hw SPCE
    104      65    3  -0.847600 -9.657621e+00  2.136134e+00 -2.418563e+01  # Ow SPCE
    105      65    2   0.423800 -9.163568e+00  3.002432e+00 -2.411188e+01  # Hw SPCE
    106      66    2   0.423800  1.500152e+01  5.578060e-01 -2.629976e+01  # Hw SPCE
    107      66    3  -0.847600  1.489056e+01  3.164740e-01 -2.533568e+01  # Ow SPCE
    108      66    2   0.423800  1.500420e+01 -6.707510e-01 -2.522399e+01  # Hw SPCE
    109      67    2   0.423800  1.425623e+01 -8.132379e+00 -1.647973e+01  # Hw SPCE
    110      67    3  -0.847600  1.344709e+01 -8.719983e+00 -1.648364e+01  # Ow SPCE
    111      67    2   0.423800  1.262390e+01 -8.153980e+00 -1.643892e+01  # Hw SPCE
    112      68    2   0.423800  6.612763e+00  1.034027e+00 -3.000125e+01  # Hw SPCE
    113      68    3  -0.847600  6.462623e+00  2.022690e+00 -3.000318e+01  # Ow SPCE
    114      68    2   0.423800  7.344701e+00  2.493785e+00 -3.000026e+01  # Hw SPCE
    115      69    2   0.423800 -4.318125e+00 -2.633002e+00 -9.923086e+00  # Hw SPCE
    116      69    3  -0.847600 -4.003177e+00 -1.693268e+00 -9.790015e+00  # Ow SPCE
    117      69    2   0.423800 -3.437837e+00 -1.644651e+00 -8.966591e+00  # Hw SPCE
    118      70    2   0.423800  1.042254e+01 -1.124971e+01 -8.576005e+00  # Hw SPCE
    119      70    3  -0.847600  9.774085e+00 -1.056453e+01 -8.244310e+00  # Ow SPCE
    120      70    2   0.423800  1.026452e+01 -9.722295e+00 -8.020446e+00  # Hw SPCE
    121      71    2   0.423800  1.500305e+01  3.232859e+00  2.493675e+01  # Hw SPCE
    122      71    3  -0.847600  1.496082e+01  2.365311e+00  2.543230e+01  # Ow SPCE
    123      71    2   0.423800  1.500290e+01  1.607281e+00  2.478145e+01  # Hw SPCE
    124      72    2   0.423800 -1.445487e+01 -1.500027e+01  3.935060e+00  # Hw SPCE
    125      72    3  -0.847600 -1.444136e+01 -1.448719e+01  4.793296e+00  # Ow SPCE
    126      72    2   0.423800 -1.493427e+01 -1.500016e+01  5.496086e+00  # Hw SPCE
    127      73    2   0.423800 -5.297850e-01  1.486011e+01  1.861209e+01  # Hw SPCE
    128      73    3  -0.847600 -1.480076e+00  1.498178e+01  1.832548e+01  # Ow SPCE
    129      73    2   0.423800 -2.085349e+00  1.451828e+01  1.897264e+01  # Hw SPCE
    130      74    2   0.423800 -2.660733e+00  1.448884e+01  9.943556e+00  # Hw SPCE
    131      74    3  -0.847600 -2.002145e+00  1.421860e+01  9.241254e+00  # Ow SPCE
    132      74    2   0.423800 -1.708155e+00  1.327687e+01  9.404722e+00  # Hw SPCE
    133      75    2   0.423800  1.353483e+01  3.977522e+00  1.179259e+01  # Hw SPCE
    134      75    3  -0.847600  1.442110e+01  3.982161e+00  1.225574e+01  # Ow SPCE
    135      75    2   0.423800  1.500586e+01  4.684258e+00  1.184939e+01  # Hw SPCE
    136      76    2   0.423800 -9.530276e+00 -6.600089e+00 -6.343011e+00  # Hw SPCE
    137      76    3  -0.847600 -9.618058e+00 -7.202822e+00 -5.549912e+00  # Ow SPCE
    138      76    2   0.423800 -9.662551e+00 -6.652363e+00 -4.716236e+00  # Hw SPCE
    139      77    2   0.423800 -6.193021e+00 -1.261301e+01 -8.479094e+00  # Hw SPCE
    140      77    3  -0.847600 -5.806930e+00 -1.346658e+01 -8.129304e+00  # Ow SPCE
    141      77    2   0.423800 -4.812507e+00 -1.338165e+01 -8.066776e+00  # Hw SPCE
    142      78    2   0.423800  4.309259e+00  9.494385e+00 -2.205675e+01  # Hw SPCE
    143      78    3  -0.847600  4.443077e+00  9.355503e+00 -2.303797e+01  # Ow SPCE
    144      78    2   0.423800  5.339122e+00  9.709733e+00 -2.330560e+01  # Hw SPCE
    145      79    2   0.423800 -1.500217e+01 -3.508814e+00 -1.515084e+01  # Hw SPCE
    146      79    3  -0.847600 -1.473088e+01 -4.455654e+00 -1.532375e+01  # Ow SPCE
    147      79    2   0.423800 -1.500114e+01 -4.715841e+00 -1.625071e+01  # Hw SPCE
    148      80    2   0.423800 -1.500034e+01  1.500041e+01 -8.595362e+00  # Hw SPCE
    149      80    3  -0.847600 -1.474285e+01  1.442521e+01 -9.371796e+00  # Ow SPCE
    150      80    2   0.423800 -1.439514e+01  1.500064e+01 -1.011205e+01  # Hw SPCE
    151      81    2   0.423800  5.765757e+00  1.047950e+01 -1.972335e+01  # Hw SPCE
    152      81    3  -0.847600  6.172642e+00  9.920095e+00 -2.044551e+01  # Ow SPCE
    153      81    2   0.423800  6.443060e+00  1.050657e+01 -2.120900e+01  # Hw SPCE
    154      82    2   0.423800 -3.339883e+00 -1.141123e+01  7.414780e-01  # Hw SPCE
    155      82    3  -0.847600 -3.769966e+00 -1.083948e+01  1.440143e+00  # Ow SPCE
    156      82    2   0.423800 -4.452357e+00 -1.024687e+01  1.012185e+00  # Hw SPCE
    157      83    2   0.423800 -9.039140e-01 -9.248666e+00 -2.797935e+01  # Hw SPCE
    158      83    3  -0.847600 -2.891060e-01 -9.466078e+00 -2.722123e+01  # Ow SPCE
    159      83    2   0.423800  4.152500e-01 -1.010265e+01 -2.753534e+01  # Hw SPCE
    160      84    2   0.423800  3.239775e+00 -2.302625e+00  6.319031e+00  # Hw SPCE
    161      84    3  -0.847600  2.290639e+00 -2.617140e+00  6.333935e+00  # Ow SPCE
    162      84    2   0.423800  2.271009e+00 -3.616765e+00  6.353011e+00  # Hw SPCE
    163      85    2   0.423800 -1.263495e+01  3.859400e+00  4.342109e+00  # Hw SPCE
    164      85    3  -0.847600 -1.350500e+01  3.423620e+00  4.572565e+00  # Ow SPCE
    165      85    2   0.423800 -1.424609e+01  4.088326e+00  4.477945e+00  # Hw SPCE
    166      86    2   0.423800 -2.452504e+00 -3.233700e-02 -1.678849e+01  # Hw SPCE
    167      86    3  -0.847600 -1.759962e+00 -2.210210e-01 -1.748476e+01  # Ow SPCE
    168      86    2   0.423800 -1.150929e+00 -9.452710e-01 -1.716143e+01  # Hw SPCE
    169      87    2   0.423800 -5.307779e+00  7.313540e+00  1.792705e+01  # Hw SPCE
    170      87    3  -0.847600 -6.181934e+00  7.764598e+00  1.774705e+01  # Ow SPCE
    171      87    2   0.423800 -6.920406e+00  7.092131e+00  1.779652e+01  # Hw SPCE
    172      88    2   0.423800 -1.497735e+01 -4.712080e+00 -1.681507e+00  # Hw SPCE
    173      88    3  -0.847600 -1.467082e+01 -4.048915e+00 -2.364337e+00  # Ow SPCE
    174      88    2   0.423800 -1.493810e+01 -4.361356e+00 -3.275897e+00  # Hw SPCE
    175      89    2   0.423800 -1.311722e+01 -6.221389e+00 -1.335238e+01  # Hw SPCE
    176      89    3  -0.847600 -1.382741e+01 -6.397219e+00 -1.403408e+01  # Ow SPCE
    177      89    2   0.423800 -1.374406e+01 -7.336252e+00 -1.436765e+01  # Hw SPCE
    178      90    2   0.423800 -9.637025e+00  3.674669e+00  2.999998e+01  # Hw SPCE
    179      90    3  -0.847600 -9.996697e+00  4.607748e+00  3.000012e+01  # Ow SPCE
    180      90    2   0.423800 -9.236859e+00  5.257860e+00  3.000022e+01  # Hw SPCE
    181      91    2   0.423800  2.036144e+00 -6.388907e+00 -6.766033e+00  # Hw SPCE
    182      91    3  -0.847600  1.069024e+00 -6.136606e+00 -6.798021e+00  # Ow SPCE
    183      91    2   0.423800  5.070180e-01 -6.960451e+00 -6.724342e+00  # Hw SPCE
    184      92    2   0.423800  1.440102e+01  5.980577e+00 -3.000043e+01  # Hw SPCE
    185      92    3  -0.847600  1.500079e+01  5.978850e+00 -2.920026e+01  # Ow SPCE
    186      92    2   0.423800  1.496021e+01  5.084258e+00 -2.875522e+01  # Hw SPCE
    187      93    2   0.423800  1.220731e+01 -1.500121e+01  2.262211e+01  # Hw SPCE
    188      93    3  -0.847600  1.139991e+01 -1.474734e+01  2.208951e+01  # Ow SPCE
    189      93    2   0.423800  1.110369e+01 -1.382862e+01  2.235068e+01  # Hw SPCE
    190      94    2   0.423800 -5.347923e+00 -1.044570e+01  3.338793e+00  # Hw SPCE
    191      94    3  -0.847600 -6.183038e+00 -1.019782e+01  2.847730e+00  # Ow SPCE
    192      94    2   0.423800 -6.132063e+00 -9.239712e+00  2.565907e+00  # Hw SPCE
    193      95    2   0.423800 -3.289402e+00  7.373745e+00 -1.579727e+01  # Hw SPCE
    194      95    3  -0.847600 -3.998800e+00  7.625937e+00 -1.513913e+01  # Ow SPCE
    195      95    2   0.423800 -4.341287e+00  8.540921e+00 -1.535245e+01  # Hw SPCE
    196      96    2   0.423800 -1.154824e+01  1.484168e+01 -7.374230e-01  # Hw SPCE
    197      96    3  -0.847600 -1.140849e+01  1.388702e+01 -4.745360e-01  # Ow SPCE
    198      96    2   0.423800 -1.229362e+01  1.342625e+01 -4.093870e-01  # Hw SPCE
    199      97    2   0.423800  1.067818e+01  3.491565e+00  2.503770e+01  # Hw SPCE
    200      97    3  -0.847600  9.851137e+00  2.938165e+00  2.513640e+01  # Ow SPCE
    201      97    2   0.423800  1.010414e+01  1.999678e+00  2.537142e+01  # Hw SPCE
    202      98    2   0.423800 -1.020647e+01  1.118743e+01 -2.547391e+01  # Hw SPCE
    203      98    3  -0.847600 -9.802153e+00  1.191424e+01 -2.491868e+01  # Ow SPCE
    204      98    2   0.423800 -1.047893e+01  1.224809e+01 -2.426255e+01  # Hw SPCE
    205      99    2   0.423800  1.500022e+01  3.672402e+00  2.956000e+01  # Hw SPCE
    206      99    3  -0.847600  1.454166e+01  2.900712e+00  3.000069e+01  # Ow SPCE
    207      99    2   0.423800  1.363553e+01  2.776341e+00  2.959638e+01  # Hw SPCE
    208     100    2   0.423800 -6.814866e+00  1.500006e+01 -1.212487e+00  # Hw SPCE
    209     100    3  -0.847600 -6.276751e+00  1.497400e+01 -3.700180e-01  # Ow SPCE
    210     100    2   0.423800 -6.624085e+00  1.424926e+01  2.250540e-01  # Hw SPCE
    211     101    2   0.423800 -9.639807e+00 -1.500019e+01  5.789303e+00  # Hw SPCE
    212     101    3  -0.847600 -8.822791e+00 -1.442361e+01  5.795188e+00  # Ow SPCE
    213     101    2   0.423800 -8.006842e+00 -1.500173e+01  5.796217e+00  # Hw SPCE
    214     102    2   0.423800  1.492391e+01  8.911016e+00  1.990449e+01  # Hw SPCE
    215     102    3  -0.847600  1.439471e+01  9.706708e+00  2.019915e+01  # Ow SPCE
    216     102    2   0.423800  1.499671e+01  1.050273e+01  2.026193e+01  # Hw SPCE
    217     103    2   0.423800 -9.743246e+00 -1.269276e+01 -2.720376e+00  # Hw SPCE
    218     103    3  -0.847600 -8.835011e+00 -1.307391e+01 -2.893102e+00  # Ow SPCE
    219     103    2   0.423800 -8.412650e+00 -1.259361e+01 -3.661815e+00  # Hw SPCE
    220     104    2   0.423800  1.500166e+01  1.205839e+01 -3.060718e+00  # Hw SPCE
    221     104    3  -0.847600  1.462637e+01  1.198458e+01 -3.984683e+00  # Ow SPCE
    222     104    2   0.423800  1.500038e+01  1.117242e+01 -4.432462e+00  # Hw SPCE
    223     105    2   0.423800  1.587089e+00  1.496782e+01 -2.949893e+01  # Hw SPCE
    224     105    3  -0.847600  5.876620e-01  1.500162e+01 -2.950038e+01  # Ow SPCE
    225     105    2   0.423800  2.282570e-01  1.421424e+01 -3.000123e+01  # Hw SPCE
    226     106    2   0.423800 -9.450000e-02 -2.820115e+00 -5.636810e+00  # Hw SPCE
    227     106    3  -0.847600  2.711580e-01 -3.724577e+00 -5.856453e+00  # Ow SPCE
    228     106    2   0.423800 -4.804000e-01 -4.380950e+00 -5.922295e+00  # Hw SPCE
    229     107    2   0.423800  1.106885e+01 -1.933570e+00 -1.400221e+01  # Hw SPCE
    230     107    3  -0.847600  1.132897e+01 -9.932140e-01 -1.422145e+01  # Ow SPCE
    231     107    2   0.423800  1.226920e+01 -9.781670e-01 -1.456167e+01  # Hw SPCE
    232     108    2   0.423800 -1.057968e+01  2.091560e-01  1.190108e+01  # Hw SPCE
    233     108    3  -0.847600 -1.018408e+01 -1.591300e-01  1.105973e+01  # Ow SPCE
    234     108    2   0.423800 -9.191510e+00 -3.876400e-02  1.107758e+01  # Hw SPCE
    235     109    2   0.423800  5.256328e+00 -3.543209e+00  2.847191e+01  # Hw SPCE
    236     109    3  -0.847600  4.810981e+00 -4.240828e+00  2.903315e+01  # Ow SPCE
    237     109    2   0.423800  4.924221e+00 -4.012886e+00  3.000022e+01  # Hw SPCE
    238     110    2   0.423800  3.666282e+00  8.413518e+00 -2.004900e-01  # Hw SPCE
    239     110    3  -0.847600  3.176469e+00  7.603021e+00 -5.217010e-01  # Ow SPCE
    240     110    2   0.423800  3.834431e+00  6.889118e+00 -7.613410e-01  # Hw SPCE
    241     111    2   0.423800 -7.364000e-03 -1.064912e+00 -8.583818e+00  # Hw SPCE
    242     111    3  -0.847600 -2.110300e-01 -1.904516e+00 -8.080246e+00  # Ow SPCE
    243     111    2   0.423800  6.069230e-01 -2.478714e+00 -8.044893e+00  # Hw SPCE
    244     112    2   0.423800 -1.500003e+01 -1.326676e+01  1.459203e+01  # Hw SPCE
    245     112    3  -0.847600 -1.444559e+01 -1.268754e+01  1.518962e+01  # Ow SPCE
    246     112    2   0.423800 -1.500001e+01 -1.192474e+01  1.552241e+01  # Hw SPCE
    247     113    2   0.423800 -5.123928e+00  1.017932e+01 -2.290392e+01  # Hw SPCE
    248     113    3  -0.847600 -6.066524e+00  1.008114e+01 -2.322310e+01  # Ow SPCE
    249     113    2   0.423800 -6.256418e+00  9.117321e+00 -2.341014e+01  # Hw SPCE
    250     114    2   0.423800 -1.140348e+01  1.500341e+01  2.638904e+01  # Hw SPCE
    251     114    3  -0.847600 -1.063879e+01  1.472553e+01  2.580764e+01  # Ow SPCE
    252     114    2   0.423800 -1.081962e+01  1.500277e+01  2.486401e+01  # Hw SPCE
    253     115    2   0.423800  9.402972e+00  6.547282e+00  1.823758e+01  # Hw SPCE
    254     115    3  -0.847600  9.348861e+00  6.721578e+00  1.922079e+01  # Ow SPCE
    255     115    2   0.423800  8.765069e+00  6.032310e+00  1.964985e+01  # Hw SPCE
    256     116    2   0.423800  3.782800e-01  1.039206e+01  5.441584e+00  # Hw SPCE
    257     116    3  -0.847600  9.690650e-01  1.034394e+01  4.636191e+00  # Ow SPCE
    258     116    2   0.423800  4.215020e-01  1.048865e+01  3.812035e+00  # Hw SPCE
    259     117    2   0.423800 -1.389957e+01  1.031887e+01 -1.268934e+01  # Hw SPCE
    260     117    3  -0.847600 -1.402968e+01  1.019864e+01 -1.367352e+01  # Ow SPCE
    261     117    2   0.423800 -1.487801e+01  9.695550e+00 -1.383858e+01  # Hw SPCE
    262     118    2   0.423800  1.400930e+01 -9.153620e+00  2.272304e+01  # Hw SPCE
    263     118    3  -0.847600  1.407134e+01 -8.707137e+00  2.183040e+01  # Ow SPCE
    264     118    2   0.423800  1.500010e+01 -8.362479e+00  2.169395e+01  # Hw SPCE
    265     119    2   0.423800 -1.304794e+01 -3.178440e+00 -1.960673e+01  # Hw SPCE
    266     119    3  -0.847600 -1.208857e+01 -3.048505e+00 -1.935629e+01  # Ow SPCE
    267     119    2   0.423800 -1.193864e+01 -2.095142e+00 -1.909434e+01  # Hw SPCE
    268     120    2   0.423800 -1.214028e+01 -1.272176e+01 -1.640089e+01  # Hw SPCE
    269     120    3  -0.847600 -1.298689e+01 -1.218965e+01 -1.641074e+01  # Ow SPCE
    270     120    2   0.423800 -1.296484e+01 -1.151453e+01 -1.567336e+01  # Hw SPCE
    271     121    2   0.423800  1.168827e+01 -1.500390e+01  1.579802e+01  # Hw SPCE
    272     121    3  -0.847600  1.139792e+01 -1.475215e+01  1.487481e+01  # Ow SPCE
    273     121    2   0.423800  1.219361e+01 -1.446371e+01  1.434219e+01  # Hw SPCE
    274     122    2   0.423800  1.456645e+00  1.346037e+01 -5.849930e+00  # Hw SPCE
    275     122    3  -0.847600  1.827816e+00  1.422410e+01 -6.378073e+00  # Ow SPCE
    276     122    2   0.423800  1.200456e+00  1.500112e+01 -6.326446e+00  # Hw SPCE
    277     123    2   0.423800  5.771782e+00 -7.467867e+00 -1.688244e+00  # Hw SPCE
    278     123    3  -0.847600  6.399032e+00 -6.867976e+00 -1.191566e+00  # Ow SPCE
    279     123    2   0.423800  7.311400e+00 -6.931500e+00 -1.595977e+00  # Hw SPCE
    280     124    2   0.423800  1.247408e+01 -7.305639e+00 -2.758087e+01  # Hw SPCE
    281     124    3  -0.847600  1.159281e+01 -7.104547e+00 -2.800857e+01  # Ow SPCE
    282     124    2   0.423800  1.089408e+01 -7.714664e+00 -2.763502e+01  # Hw SPCE
    283     125    2   0.423800 -3.166472e+00  1.064114e+01 -1.602957e+01  # Hw SPCE
    284     125    3  -0.847600 -2.567974e+00  1.141066e+01 -1.625235e+01  # Ow SPCE
    285     125    2   0.423800 -1.784676e+00  1.141456e+01 -1.563071e+01  # Hw SPCE
    286     126    2   0.423800  1.448826e+01  1.500102e+01  2.276582e+01  # Hw SPCE
    287     126    3  -0.847600  1.490441e+01  1.473689e+01  2.363591e+01  # Ow SPCE
    288     126    2   0.423800  1.500261e+01  1.374231e+01  2.367011e+01  # Hw SPCE
    289     127    2   0.423800  9.971991e+00 -1.485826e+01  7.754171e+00  # Hw SPCE
    290     127    3  -0.847600  9.223021e+00 -1.477821e+01  8.411922e+00  # Ow SPCE
    291     127    2   0.423800  9.558366e+00 -1.500008e+01  9.327520e+00  # Hw SPCE
    292     128    2   0.423800  9.476078e+00 -2.316686e+00 -6.795277e+00  # Hw SPCE
    293     128    3  -0.847600  1.031034e+01 -2.832811e+00 -6.601297e+00  # Ow SPCE
    294     128    2   0.423800  1.028782e+01 -3.701193e+00 -7.096682e+00  # Hw SPCE
    295     129    2   0.423800 -7.834891e+00  6.614563e+00  2.842544e+01  # Hw SPCE
    296     129    3  -0.847600 -8.377673e+00  7.320947e+00  2.887976e+01  # Ow SPCE
    297     129    2   0.423800 -9.125621e+00  7.604176e+00  2.827947e+01  # Hw SPCE
    298     130    2   0.423800  1.500240e+01 -1.302492e+01  8.845627e+00  # Hw SPCE
    299     130    3  -0.847600  1.475892e+01 -1.343659e+01  7.967423e+00  # Ow SPCE
    300     130    2   0.423800  1.384826e+01 -1.312611e+01  7.694826e+00  # Hw SPCE
    301     131    2   0.423800  1.500017e+01 -7.518706e+00 -6.774646e+00  # Hw SPCE
    302     131    3  -0.847600  1.487775e+01 -7.059873e+00 -5.894598e+00  # Ow SPCE
    303     131    2   0.423800  1.494235e+01 -6.070236e+00 -6.022837e+00  # Hw SPCE
    304     132    2   0.423800 -1.481342e+01  3.230949e+00 -2.094427e+01  # Hw SPCE
    305     132    3  -0.847600 -1.456884e+01  2.574429e+00 -2.023072e+01  # Ow SPCE
    306     132    2   0.423800 -1.475449e+01  1.646440e+00 -2.055378e+01  # Hw SPCE
    307     133    2   0.423800 -1.099936e+01  1.500102e+01  8.949771e+00  # Hw SPCE
    308     133    3  -0.847600 -1.154655e+01  1.467597e+01  8.178454e+00  # Ow SPCE
    309     133    2   0.423800 -1.248741e+01  1.500003e+01  8.277228e+00  # Hw SPCE
    310     134    2   0.423800  1.164474e+01  1.381198e+01  2.507787e+00  # Hw SPCE
    311     134    3  -0.847600  1.177036e+01  1.480214e+01  2.569391e+00  # Ow SPCE
    312     134    2   0.423800  1.262907e+01  1.500042e+01  3.041949e+00  # Hw SPCE
    313     135    2   0.423800 -1.112294e+01  9.575920e+00  8.503487e+00  # Hw SPCE
    314     135    3  -0.847600 -1.191482e+01  1.017462e+01  8.383149e+00  # Ow SPCE
    315     135    2   0.423800 -1.160649e+01  1.108133e+01  8.095372e+00  # Hw SPCE
    316     136    2   0.423800 -1.008819e+01 -1.564293e+00 -2.715820e-01  # Hw SPCE
    317     136    3  -0.847600 -1.034565e+01 -1.221792e+00 -1.175135e+00  # Ow SPCE
    318     136    2   0.423800 -1.134174e+01 -1.229562e+00 -1.263142e+00  # Hw SPCE
    319     137    2   0.423800  7.668356e+00  1.230066e+01 -2.358036e+01  # Hw SPCE
    320     137    3  -0.847600  6.705662e+00  1.211437e+01 -2.377662e+01  # Ow SPCE
    321     137    2   0.423800  6.167918e+00  1.294360e+01 -2.362430e+01  # Hw SPCE
    322     138    2   0.423800  1.279382e+01  1.166727e+01  2.047845e+01  # Hw SPCE
    323     138    3  -0.847600  1.307277e+01  1.204617e+01  1.959605e+01  # Ow SPCE
    324     138    2   0.423800  1.226042e+01  1.226623e+01  1.905600e+01  # Hw SPCE
    325     139    2   0.423800 -1.010937e+01  1.203417e+01  2.599767e+01  # Hw SPCE
    326     139    3  -0.847600 -1.036596e+01  1.179696e+01  2.506071e+01  # Ow SPCE
    327     139    2   0.423800 -1.095434e+01  1.251287e+01  2.468485e+01  # Hw SPCE
    328     140    2   0.423800 -1.159240e+01  9.695518e+00  3.000596e+01  # Hw SPCE
    329     140    3  -0.847600 -1.063388e+01  9.973035e+00  2.994102e+01  # Ow SPCE
    330     140    2   0.423800 -1.004808e+01  9.164782e+00  3.000078e+01  # Hw SPCE
    331     141    2   0.423800  1.897283e+00 -1.407064e+01  5.526526e+00  # Hw SPCE
    332     141    3  -0.847600  2.213213e+00 -1.500116e+01  5.341259e+00  # Ow SPCE
    333     141    2   0.423800  3.201712e+00 -1.499367e+01  5.190217e+00  # Hw SPCE
    334     142    2   0.423800 -7.454616e+00  1.263989e+01 -2.445925e+01  # Hw SPCE
    335     142    3  -0.847600 -6.741533e+00  1.314589e+01 -2.397399e+01  # Ow SPCE
    336     142    2   0.423800 -7.149147e+00  1.392962e+01 -2.350537e+01  # Hw SPCE
    337     143    2   0.423800  7.397941e+00  6.571011e+00  2.201401e+01  # Hw SPCE
    338     143    3  -0.847600  8.262354e+00  7.046724e+00  2.217675e+01  # Ow SPCE
    339     143    2   0.423800  8.425733e+00  7.113783e+00  2.316104e+01  # Hw SPCE
    340     144    2   0.423800  3.496350e+00 -3.068975e+00 -1.189151e+01  # Hw SPCE
    341     144    3  -0.847600  3.293593e+00 -3.914929e+00 -1.139831e+01  # Ow SPCE
    342     144    2   0.423800  4.148440e+00 -4.342078e+00 -1.110372e+01  # Hw SPCE
    343     145    2   0.423800  1.472782e+01 -1.485062e+01  2.225711e+01  # Hw SPCE
    344     145    3  -0.847600  1.473927e+01 -1.390944e+01  2.191941e+01  # Ow SPCE
    345     145    2   0.423800  1.495180e+01 -1.328747e+01  2.267307e+01  # Hw SPCE
    346     146    2   0.423800  1.383531e+01  4.725220e+00  1.606484e+01  # Hw SPCE
    347     146    3  -0.847600  1.479125e+01  4.454947e+00  1.617948e+01  # Ow SPCE
    348     146    2   0.423800  1.500038e+01  4.374763e+00  1.715408e+01  # Hw SPCE
    349     147    2   0.423800 -1.348430e+01  1.247440e+01  9.385755e+00  # Hw SPCE